 BEGIN_INFO
   #
   # this is a Band-XCRYSDEN-Structure-File
   # aimed at Visualization of Fermi Surface
   #
   # Case:   aiida_fs.bxsf
   #
 Fermi Energy:         11.2478
 END_INFO
 BEGIN_BLOCK_BANDGRID_3D
 band_energies
 BANDGRID_3D_BANDS
    7
   15   15   15
  0.000000  0.000000  0.000000
  1.000000  0.000000  0.000000
  0.000000  1.000000  0.000000
  0.000000  0.000000  1.000000
BAND:  20
   10.3029   10.2460   10.0660    9.7769    9.5231    9.5975
    9.7956    9.8852    9.7956    9.5975    9.5231    9.7769
   10.0660   10.2460   10.3029   10.2460   10.2486   10.0938
    9.8070    9.5572    9.6331    9.8335    9.9265    9.8335
    9.6331    9.5572    9.8070   10.0938   10.2486   10.2460
   10.0660   10.0938   10.1180    9.8876    9.6544    9.7318
    9.9374   10.0484    9.9374    9.7318    9.6544    9.8876
   10.1180   10.0938   10.0660    9.7769    9.8070    9.8876
    9.9620    9.7890    9.8369    9.9770   10.0393    9.9770
    9.8369    9.7890    9.9620    9.8876    9.8070    9.7769
    9.5231    9.5572    9.6544    9.7890    9.8029    9.7647
    9.7949    9.8135    9.7949    9.7647    9.8029    9.7890
    9.6544    9.5572    9.5231    9.5975    9.6331    9.7318
    9.8369    9.7647    9.6434    9.6152    9.6226    9.6152
    9.6434    9.7647    9.8369    9.7318    9.6331    9.5975
    9.7956    9.8335    9.9374    9.9770    9.7949    9.6152
    9.5068    9.4951    9.5068    9.6152    9.7949    9.9770
    9.9374    9.8335    9.7956    9.8852    9.9265   10.0484
   10.0393    9.8135    9.6226    9.4951    9.4502    9.4951
    9.6226    9.8135   10.0393   10.0484    9.9265    9.8852
    9.7956    9.8335    9.9374    9.9770    9.7949    9.6152
    9.5068    9.4951    9.5068    9.6152    9.7949    9.9770
    9.9374    9.8335    9.7956    9.5975    9.6331    9.7318
    9.8369    9.7647    9.6434    9.6152    9.6226    9.6152
    9.6434    9.7647    9.8369    9.7318    9.6331    9.5975
    9.5231    9.5572    9.6544    9.7890    9.8029    9.7647
    9.7949    9.8135    9.7949    9.7647    9.8029    9.7890
    9.6544    9.5572    9.5231    9.7769    9.8070    9.8876
    9.9620    9.7890    9.8369    9.9770   10.0393    9.9770
    9.8369    9.7890    9.9620    9.8876    9.8070    9.7769
   10.0660   10.0938   10.1180    9.8876    9.6544    9.7318
    9.9374   10.0484    9.9374    9.7318    9.6544    9.8876
   10.1180   10.0938   10.0660   10.2460   10.2486   10.0938
    9.8070    9.5572    9.6331    9.8335    9.9265    9.8335
    9.6331    9.5572    9.8070   10.0938   10.2486   10.2460
   10.3029   10.2460   10.0660    9.7769    9.5231    9.5975
    9.7956    9.8852    9.7956    9.5975    9.5231    9.7769
   10.0660   10.2460   10.3029   10.2460   10.2486   10.0938
    9.8070    9.5572    9.6331    9.8335    9.9265    9.8335
    9.6331    9.5572    9.8070   10.0938   10.2486   10.2460
   10.2486   10.2954   10.1230    9.8348    9.5911    9.6664
    9.8674    9.9655    9.8674    9.6664    9.5911    9.8348
   10.1230   10.2954   10.2486   10.0938   10.1230   10.1594
    9.9061    9.6880    9.7553    9.9429   10.0805    9.9429
    9.7553    9.6880    9.9061   10.1594   10.1230   10.0938
    9.8070    9.8348    9.9061    9.9744    9.8233    9.8240
    9.8707    9.8863    9.8707    9.8240    9.8233    9.9744
    9.9061    9.8348    9.8070    9.5572    9.5911    9.6880
    9.8233    9.8378    9.7626    9.7245    9.7135    9.7245
    9.7626    9.8378    9.8233    9.6880    9.5911    9.5572
    9.6331    9.6664    9.7553    9.8240    9.7626    9.6753
    9.6092    9.5833    9.6092    9.6753    9.7626    9.8240
    9.7553    9.6664    9.6331    9.8335    9.8674    9.9429
    9.8707    9.7245    9.6092    9.5353    9.5037    9.5353
    9.6092    9.7245    9.8707    9.9429    9.8674    9.8335
    9.9265    9.9655   10.0805    9.8863    9.7135    9.5833
    9.5037    9.4772    9.5037    9.5833    9.7135    9.8863
   10.0805    9.9655    9.9265    9.8335    9.8674    9.9429
    9.8707    9.7245    9.6092    9.5353    9.5037    9.5353
    9.6092    9.7245    9.8707    9.9429    9.8674    9.8335
    9.6331    9.6664    9.7553    9.8240    9.7626    9.6753
    9.6092    9.5833    9.6092    9.6753    9.7626    9.8240
    9.7553    9.6664    9.6331    9.5572    9.5911    9.6880
    9.8233    9.8378    9.7626    9.7245    9.7135    9.7245
    9.7626    9.8378    9.8233    9.6880    9.5911    9.5572
    9.8070    9.8348    9.9061    9.9744    9.8233    9.8240
    9.8707    9.8863    9.8707    9.8240    9.8233    9.9744
    9.9061    9.8348    9.8070   10.0938   10.1230   10.1594
    9.9061    9.6880    9.7553    9.9429   10.0805    9.9429
    9.7553    9.6880    9.9061   10.1594   10.1230   10.0938
   10.2486   10.2954   10.1230    9.8348    9.5911    9.6664
    9.8674    9.9655    9.8674    9.6664    9.5911    9.8348
   10.1230   10.2954   10.2486   10.2460   10.2486   10.0938
    9.8070    9.5572    9.6331    9.8335    9.9265    9.8335
    9.6331    9.5572    9.8070   10.0938   10.2486   10.2460
   10.0660   10.0938   10.1180    9.8876    9.6544    9.7318
    9.9374   10.0484    9.9374    9.7318    9.6544    9.8876
   10.1180   10.0938   10.0660   10.0938   10.1230   10.1594
    9.9061    9.6880    9.7553    9.9429   10.0805    9.9429
    9.7553    9.6880    9.9061   10.1594   10.1230   10.0938
   10.1180   10.1594   10.0842    9.9250    9.7843    9.8028
    9.8595    9.8758    9.8595    9.8028    9.7843    9.9250
   10.0842   10.1594   10.1180    9.8876    9.9061    9.9250
    9.9214    9.9218    9.8158    9.7351    9.7075    9.7351
    9.8158    9.9218    9.9214    9.9250    9.9061    9.8876
    9.6544    9.6880    9.7843    9.9218    9.9400    9.8113
    9.6648    9.5978    9.6648    9.8113    9.9400    9.9218
    9.7843    9.6880    9.6544    9.7318    9.7553    9.8028
    9.8158    9.8113    9.7676    9.6456    9.5492    9.6456
    9.7676    9.8113    9.8158    9.8028    9.7553    9.7318
    9.9374    9.9429    9.8595    9.7351    9.6648    9.6456
    9.6161    9.5459    9.6161    9.6456    9.6648    9.7351
    9.8595    9.9429    9.9374   10.0484   10.0805    9.8758
    9.7075    9.5978    9.5492    9.5459    9.5528    9.5459
    9.5492    9.5978    9.7075    9.8758   10.0805   10.0484
    9.9374    9.9429    9.8595    9.7351    9.6648    9.6456
    9.6161    9.5459    9.6161    9.6456    9.6648    9.7351
    9.8595    9.9429    9.9374    9.7318    9.7553    9.8028
    9.8158    9.8113    9.7676    9.6456    9.5492    9.6456
    9.7676    9.8113    9.8158    9.8028    9.7553    9.7318
    9.6544    9.6880    9.7843    9.9218    9.9400    9.8113
    9.6648    9.5978    9.6648    9.8113    9.9400    9.9218
    9.7843    9.6880    9.6544    9.8876    9.9061    9.9250
    9.9214    9.9218    9.8158    9.7351    9.7075    9.7351
    9.8158    9.9218    9.9214    9.9250    9.9061    9.8876
   10.1180   10.1594   10.0842    9.9250    9.7843    9.8028
    9.8595    9.8758    9.8595    9.8028    9.7843    9.9250
   10.0842   10.1594   10.1180   10.0938   10.1230   10.1594
    9.9061    9.6880    9.7553    9.9429   10.0805    9.9429
    9.7553    9.6880    9.9061   10.1594   10.1230   10.0938
   10.0660   10.0938   10.1180    9.8876    9.6544    9.7318
    9.9374   10.0484    9.9374    9.7318    9.6544    9.8876
   10.1180   10.0938   10.0660    9.7769    9.8070    9.8876
    9.9620    9.7890    9.8369    9.9770   10.0393    9.9770
    9.8369    9.7890    9.9620    9.8876    9.8070    9.7769
    9.8070    9.8348    9.9061    9.9744    9.8233    9.8240
    9.8707    9.8863    9.8707    9.8240    9.8233    9.9744
    9.9061    9.8348    9.8070    9.8876    9.9061    9.9250
    9.9214    9.9218    9.8158    9.7351    9.7075    9.7351
    9.8158    9.9218    9.9214    9.9250    9.9061    9.8876
    9.9620    9.9744    9.9214    9.9627   10.0647    9.8585
    9.6726    9.5925    9.6726    9.8585   10.0647    9.9627
    9.9214    9.9744    9.9620    9.7890    9.8233    9.9218
   10.0647   10.1012    9.9246    9.6895    9.5514    9.6895
    9.9246   10.1012   10.0647    9.9218    9.8233    9.7890
    9.8369    9.8240    9.8158    9.8585    9.9246    9.9092
    9.7414    9.5743    9.7414    9.9092    9.9246    9.8585
    9.8158    9.8240    9.8369    9.9770    9.8707    9.7351
    9.6726    9.6895    9.7414    9.7340    9.6294    9.7340
    9.7414    9.6895    9.6726    9.7351    9.8707    9.9770
   10.0393    9.8863    9.7075    9.5925    9.5514    9.5743
    9.6294    9.6604    9.6294    9.5743    9.5514    9.5925
    9.7075    9.8863   10.0393    9.9770    9.8707    9.7351
    9.6726    9.6895    9.7414    9.7340    9.6294    9.7340
    9.7414    9.6895    9.6726    9.7351    9.8707    9.9770
    9.8369    9.8240    9.8158    9.8585    9.9246    9.9092
    9.7414    9.5743    9.7414    9.9092    9.9246    9.8585
    9.8158    9.8240    9.8369    9.7890    9.8233    9.9218
   10.0647   10.1012    9.9246    9.6895    9.5514    9.6895
    9.9246   10.1012   10.0647    9.9218    9.8233    9.7890
    9.9620    9.9744    9.9214    9.9627   10.0647    9.8585
    9.6726    9.5925    9.6726    9.8585   10.0647    9.9627
    9.9214    9.9744    9.9620    9.8876    9.9061    9.9250
    9.9214    9.9218    9.8158    9.7351    9.7075    9.7351
    9.8158    9.9218    9.9214    9.9250    9.9061    9.8876
    9.8070    9.8348    9.9061    9.9744    9.8233    9.8240
    9.8707    9.8863    9.8707    9.8240    9.8233    9.9744
    9.9061    9.8348    9.8070    9.7769    9.8070    9.8876
    9.9620    9.7890    9.8369    9.9770   10.0393    9.9770
    9.8369    9.7890    9.9620    9.8876    9.8070    9.7769
    9.5231    9.5572    9.6544    9.7890    9.8029    9.7647
    9.7949    9.8135    9.7949    9.7647    9.8029    9.7890
    9.6544    9.5572    9.5231    9.5572    9.5911    9.6880
    9.8233    9.8378    9.7626    9.7245    9.7135    9.7245
    9.7626    9.8378    9.8233    9.6880    9.5911    9.5572
    9.6544    9.6880    9.7843    9.9218    9.9400    9.8113
    9.6648    9.5978    9.6648    9.8113    9.9400    9.9218
    9.7843    9.6880    9.6544    9.7890    9.8233    9.9218
   10.0647   10.1012    9.9246    9.6895    9.5514    9.6895
    9.9246   10.1012   10.0647    9.9218    9.8233    9.7890
    9.8029    9.8378    9.9400   10.1012   10.3073   10.0597
    9.7745    9.5762    9.7745   10.0597   10.3073   10.1012
    9.9400    9.8378    9.8029    9.7647    9.7626    9.8113
    9.9246   10.0597   10.0799    9.8647    9.6504    9.8647
   10.0799   10.0597    9.9246    9.8113    9.7626    9.7647
    9.7949    9.7245    9.6648    9.6895    9.7745    9.8647
    9.8626    9.7340    9.8626    9.8647    9.7745    9.6895
    9.6648    9.7245    9.7949    9.8135    9.7135    9.5978
    9.5514    9.5762    9.6504    9.7340    9.7723    9.7340
    9.6504    9.5762    9.5514    9.5978    9.7135    9.8135
    9.7949    9.7245    9.6648    9.6895    9.7745    9.8647
    9.8626    9.7340    9.8626    9.8647    9.7745    9.6895
    9.6648    9.7245    9.7949    9.7647    9.7626    9.8113
    9.9246   10.0597   10.0799    9.8647    9.6504    9.8647
   10.0799   10.0597    9.9246    9.8113    9.7626    9.7647
    9.8029    9.8378    9.9400   10.1012   10.3073   10.0597
    9.7745    9.5762    9.7745   10.0597   10.3073   10.1012
    9.9400    9.8378    9.8029    9.7890    9.8233    9.9218
   10.0647   10.1012    9.9246    9.6895    9.5514    9.6895
    9.9246   10.1012   10.0647    9.9218    9.8233    9.7890
    9.6544    9.6880    9.7843    9.9218    9.9400    9.8113
    9.6648    9.5978    9.6648    9.8113    9.9400    9.9218
    9.7843    9.6880    9.6544    9.5572    9.5911    9.6880
    9.8233    9.8378    9.7626    9.7245    9.7135    9.7245
    9.7626    9.8378    9.8233    9.6880    9.5911    9.5572
    9.5231    9.5572    9.6544    9.7890    9.8029    9.7647
    9.7949    9.8135    9.7949    9.7647    9.8029    9.7890
    9.6544    9.5572    9.5231    9.5975    9.6331    9.7318
    9.8369    9.7647    9.6434    9.6152    9.6226    9.6152
    9.6434    9.7647    9.8369    9.7318    9.6331    9.5975
    9.6331    9.6664    9.7553    9.8240    9.7626    9.6753
    9.6092    9.5833    9.6092    9.6753    9.7626    9.8240
    9.7553    9.6664    9.6331    9.7318    9.7553    9.8028
    9.8158    9.8113    9.7676    9.6456    9.5492    9.6456
    9.7676    9.8113    9.8158    9.8028    9.7553    9.7318
    9.8369    9.8240    9.8158    9.8585    9.9246    9.9092
    9.7414    9.5743    9.7414    9.9092    9.9246    9.8585
    9.8158    9.8240    9.8369    9.7647    9.7626    9.8113
    9.9246   10.0597   10.0799    9.8647    9.6504    9.8647
   10.0799   10.0597    9.9246    9.8113    9.7626    9.7647
    9.6434    9.6753    9.7676    9.9092   10.0799   10.2489
    9.9713    9.7477    9.9713   10.2489   10.0799    9.9092
    9.7676    9.6753    9.6434    9.6152    9.6092    9.6456
    9.7414    9.8647    9.9713    9.9695    9.8280    9.9695
    9.9713    9.8647    9.7414    9.6456    9.6092    9.6152
    9.6226    9.5833    9.5492    9.5743    9.6504    9.7477
    9.8280    9.8590    9.8280    9.7477    9.6504    9.5743
    9.5492    9.5833    9.6226    9.6152    9.6092    9.6456
    9.7414    9.8647    9.9713    9.9695    9.8280    9.9695
    9.9713    9.8647    9.7414    9.6456    9.6092    9.6152
    9.6434    9.6753    9.7676    9.9092   10.0799   10.2489
    9.9713    9.7477    9.9713   10.2489   10.0799    9.9092
    9.7676    9.6753    9.6434    9.7647    9.7626    9.8113
    9.9246   10.0597   10.0799    9.8647    9.6504    9.8647
   10.0799   10.0597    9.9246    9.8113    9.7626    9.7647
    9.8369    9.8240    9.8158    9.8585    9.9246    9.9092
    9.7414    9.5743    9.7414    9.9092    9.9246    9.8585
    9.8158    9.8240    9.8369    9.7318    9.7553    9.8028
    9.8158    9.8113    9.7676    9.6456    9.5492    9.6456
    9.7676    9.8113    9.8158    9.8028    9.7553    9.7318
    9.6331    9.6664    9.7553    9.8240    9.7626    9.6753
    9.6092    9.5833    9.6092    9.6753    9.7626    9.8240
    9.7553    9.6664    9.6331    9.5975    9.6331    9.7318
    9.8369    9.7647    9.6434    9.6152    9.6226    9.6152
    9.6434    9.7647    9.8369    9.7318    9.6331    9.5975
    9.7956    9.8335    9.9374    9.9770    9.7949    9.6152
    9.5068    9.4951    9.5068    9.6152    9.7949    9.9770
    9.9374    9.8335    9.7956    9.8335    9.8674    9.9429
    9.8707    9.7245    9.6092    9.5353    9.5037    9.5353
    9.6092    9.7245    9.8707    9.9429    9.8674    9.8335
    9.9374    9.9429    9.8595    9.7351    9.6648    9.6456
    9.6161    9.5459    9.6161    9.6456    9.6648    9.7351
    9.8595    9.9429    9.9374    9.9770    9.8707    9.7351
    9.6726    9.6895    9.7414    9.7340    9.6294    9.7340
    9.7414    9.6895    9.6726    9.7351    9.8707    9.9770
    9.7949    9.7245    9.6648    9.6895    9.7745    9.8647
    9.8626    9.7340    9.8626    9.8647    9.7745    9.6895
    9.6648    9.7245    9.7949    9.6152    9.6092    9.6456
    9.7414    9.8647    9.9713    9.9695    9.8280    9.9695
    9.9713    9.8647    9.7414    9.6456    9.6092    9.6152
    9.5068    9.5353    9.6161    9.7340    9.8626    9.9695
   10.0333    9.8873   10.0333    9.9695    9.8626    9.7340
    9.6161    9.5353    9.5068    9.4951    9.5037    9.5459
    9.6294    9.7340    9.8280    9.8873    9.9065    9.8873
    9.8280    9.7340    9.6294    9.5459    9.5037    9.4951
    9.5068    9.5353    9.6161    9.7340    9.8626    9.9695
   10.0333    9.8873   10.0333    9.9695    9.8626    9.7340
    9.6161    9.5353    9.5068    9.6152    9.6092    9.6456
    9.7414    9.8647    9.9713    9.9695    9.8280    9.9695
    9.9713    9.8647    9.7414    9.6456    9.6092    9.6152
    9.7949    9.7245    9.6648    9.6895    9.7745    9.8647
    9.8626    9.7340    9.8626    9.8647    9.7745    9.6895
    9.6648    9.7245    9.7949    9.9770    9.8707    9.7351
    9.6726    9.6895    9.7414    9.7340    9.6294    9.7340
    9.7414    9.6895    9.6726    9.7351    9.8707    9.9770
    9.9374    9.9429    9.8595    9.7351    9.6648    9.6456
    9.6161    9.5459    9.6161    9.6456    9.6648    9.7351
    9.8595    9.9429    9.9374    9.8335    9.8674    9.9429
    9.8707    9.7245    9.6092    9.5353    9.5037    9.5353
    9.6092    9.7245    9.8707    9.9429    9.8674    9.8335
    9.7956    9.8335    9.9374    9.9770    9.7949    9.6152
    9.5068    9.4951    9.5068    9.6152    9.7949    9.9770
    9.9374    9.8335    9.7956    9.8852    9.9265   10.0484
   10.0393    9.8135    9.6226    9.4951    9.4502    9.4951
    9.6226    9.8135   10.0393   10.0484    9.9265    9.8852
    9.9265    9.9655   10.0805    9.8863    9.7135    9.5833
    9.5037    9.4772    9.5037    9.5833    9.7135    9.8863
   10.0805    9.9655    9.9265   10.0484   10.0805    9.8758
    9.7075    9.5978    9.5492    9.5459    9.5528    9.5459
    9.5492    9.5978    9.7075    9.8758   10.0805   10.0484
   10.0393    9.8863    9.7075    9.5925    9.5514    9.5743
    9.6294    9.6604    9.6294    9.5743    9.5514    9.5925
    9.7075    9.8863   10.0393    9.8135    9.7135    9.5978
    9.5514    9.5762    9.6504    9.7340    9.7723    9.7340
    9.6504    9.5762    9.5514    9.5978    9.7135    9.8135
    9.6226    9.5833    9.5492    9.5743    9.6504    9.7477
    9.8280    9.8590    9.8280    9.7477    9.6504    9.5743
    9.5492    9.5833    9.6226    9.4951    9.5037    9.5459
    9.6294    9.7340    9.8280    9.8873    9.9065    9.8873
    9.8280    9.7340    9.6294    9.5459    9.5037    9.4951
    9.4502    9.4772    9.5528    9.6604    9.7723    9.8590
    9.9065    9.9205    9.9065    9.8590    9.7723    9.6604
    9.5528    9.4772    9.4502    9.4951    9.5037    9.5459
    9.6294    9.7340    9.8280    9.8873    9.9065    9.8873
    9.8280    9.7340    9.6294    9.5459    9.5037    9.4951
    9.6226    9.5833    9.5492    9.5743    9.6504    9.7477
    9.8280    9.8590    9.8280    9.7477    9.6504    9.5743
    9.5492    9.5833    9.6226    9.8135    9.7135    9.5978
    9.5514    9.5762    9.6504    9.7340    9.7723    9.7340
    9.6504    9.5762    9.5514    9.5978    9.7135    9.8135
   10.0393    9.8863    9.7075    9.5925    9.5514    9.5743
    9.6294    9.6604    9.6294    9.5743    9.5514    9.5925
    9.7075    9.8863   10.0393   10.0484   10.0805    9.8758
    9.7075    9.5978    9.5492    9.5459    9.5528    9.5459
    9.5492    9.5978    9.7075    9.8758   10.0805   10.0484
    9.9265    9.9655   10.0805    9.8863    9.7135    9.5833
    9.5037    9.4772    9.5037    9.5833    9.7135    9.8863
   10.0805    9.9655    9.9265    9.8852    9.9265   10.0484
   10.0393    9.8135    9.6226    9.4951    9.4502    9.4951
    9.6226    9.8135   10.0393   10.0484    9.9265    9.8852
    9.7956    9.8335    9.9374    9.9770    9.7949    9.6152
    9.5068    9.4951    9.5068    9.6152    9.7949    9.9770
    9.9374    9.8335    9.7956    9.8335    9.8674    9.9429
    9.8707    9.7245    9.6092    9.5353    9.5037    9.5353
    9.6092    9.7245    9.8707    9.9429    9.8674    9.8335
    9.9374    9.9429    9.8595    9.7351    9.6648    9.6456
    9.6161    9.5459    9.6161    9.6456    9.6648    9.7351
    9.8595    9.9429    9.9374    9.9770    9.8707    9.7351
    9.6726    9.6895    9.7414    9.7340    9.6294    9.7340
    9.7414    9.6895    9.6726    9.7351    9.8707    9.9770
    9.7949    9.7245    9.6648    9.6895    9.7745    9.8647
    9.8626    9.7340    9.8626    9.8647    9.7745    9.6895
    9.6648    9.7245    9.7949    9.6152    9.6092    9.6456
    9.7414    9.8647    9.9713    9.9695    9.8280    9.9695
    9.9713    9.8647    9.7414    9.6456    9.6092    9.6152
    9.5068    9.5353    9.6161    9.7340    9.8626    9.9695
   10.0333    9.8873   10.0333    9.9695    9.8626    9.7340
    9.6161    9.5353    9.5068    9.4951    9.5037    9.5459
    9.6294    9.7340    9.8280    9.8873    9.9065    9.8873
    9.8280    9.7340    9.6294    9.5459    9.5037    9.4951
    9.5068    9.5353    9.6161    9.7340    9.8626    9.9695
   10.0333    9.8873   10.0333    9.9695    9.8626    9.7340
    9.6161    9.5353    9.5068    9.6152    9.6092    9.6456
    9.7414    9.8647    9.9713    9.9695    9.8280    9.9695
    9.9713    9.8647    9.7414    9.6456    9.6092    9.6152
    9.7949    9.7245    9.6648    9.6895    9.7745    9.8647
    9.8626    9.7340    9.8626    9.8647    9.7745    9.6895
    9.6648    9.7245    9.7949    9.9770    9.8707    9.7351
    9.6726    9.6895    9.7414    9.7340    9.6294    9.7340
    9.7414    9.6895    9.6726    9.7351    9.8707    9.9770
    9.9374    9.9429    9.8595    9.7351    9.6648    9.6456
    9.6161    9.5459    9.6161    9.6456    9.6648    9.7351
    9.8595    9.9429    9.9374    9.8335    9.8674    9.9429
    9.8707    9.7245    9.6092    9.5353    9.5037    9.5353
    9.6092    9.7245    9.8707    9.9429    9.8674    9.8335
    9.7956    9.8335    9.9374    9.9770    9.7949    9.6152
    9.5068    9.4951    9.5068    9.6152    9.7949    9.9770
    9.9374    9.8335    9.7956    9.5975    9.6331    9.7318
    9.8369    9.7647    9.6434    9.6152    9.6226    9.6152
    9.6434    9.7647    9.8369    9.7318    9.6331    9.5975
    9.6331    9.6664    9.7553    9.8240    9.7626    9.6753
    9.6092    9.5833    9.6092    9.6753    9.7626    9.8240
    9.7553    9.6664    9.6331    9.7318    9.7553    9.8028
    9.8158    9.8113    9.7676    9.6456    9.5492    9.6456
    9.7676    9.8113    9.8158    9.8028    9.7553    9.7318
    9.8369    9.8240    9.8158    9.8585    9.9246    9.9092
    9.7414    9.5743    9.7414    9.9092    9.9246    9.8585
    9.8158    9.8240    9.8369    9.7647    9.7626    9.8113
    9.9246   10.0597   10.0799    9.8647    9.6504    9.8647
   10.0799   10.0597    9.9246    9.8113    9.7626    9.7647
    9.6434    9.6753    9.7676    9.9092   10.0799   10.2489
    9.9713    9.7477    9.9713   10.2489   10.0799    9.9092
    9.7676    9.6753    9.6434    9.6152    9.6092    9.6456
    9.7414    9.8647    9.9713    9.9695    9.8280    9.9695
    9.9713    9.8647    9.7414    9.6456    9.6092    9.6152
    9.6226    9.5833    9.5492    9.5743    9.6504    9.7477
    9.8280    9.8590    9.8280    9.7477    9.6504    9.5743
    9.5492    9.5833    9.6226    9.6152    9.6092    9.6456
    9.7414    9.8647    9.9713    9.9695    9.8280    9.9695
    9.9713    9.8647    9.7414    9.6456    9.6092    9.6152
    9.6434    9.6753    9.7676    9.9092   10.0799   10.2489
    9.9713    9.7477    9.9713   10.2489   10.0799    9.9092
    9.7676    9.6753    9.6434    9.7647    9.7626    9.8113
    9.9246   10.0597   10.0799    9.8647    9.6504    9.8647
   10.0799   10.0597    9.9246    9.8113    9.7626    9.7647
    9.8369    9.8240    9.8158    9.8585    9.9246    9.9092
    9.7414    9.5743    9.7414    9.9092    9.9246    9.8585
    9.8158    9.8240    9.8369    9.7318    9.7553    9.8028
    9.8158    9.8113    9.7676    9.6456    9.5492    9.6456
    9.7676    9.8113    9.8158    9.8028    9.7553    9.7318
    9.6331    9.6664    9.7553    9.8240    9.7626    9.6753
    9.6092    9.5833    9.6092    9.6753    9.7626    9.8240
    9.7553    9.6664    9.6331    9.5975    9.6331    9.7318
    9.8369    9.7647    9.6434    9.6152    9.6226    9.6152
    9.6434    9.7647    9.8369    9.7318    9.6331    9.5975
    9.5231    9.5572    9.6544    9.7890    9.8029    9.7647
    9.7949    9.8135    9.7949    9.7647    9.8029    9.7890
    9.6544    9.5572    9.5231    9.5572    9.5911    9.6880
    9.8233    9.8378    9.7626    9.7245    9.7135    9.7245
    9.7626    9.8378    9.8233    9.6880    9.5911    9.5572
    9.6544    9.6880    9.7843    9.9218    9.9400    9.8113
    9.6648    9.5978    9.6648    9.8113    9.9400    9.9218
    9.7843    9.6880    9.6544    9.7890    9.8233    9.9218
   10.0647   10.1012    9.9246    9.6895    9.5514    9.6895
    9.9246   10.1012   10.0647    9.9218    9.8233    9.7890
    9.8029    9.8378    9.9400   10.1012   10.3073   10.0597
    9.7745    9.5762    9.7745   10.0597   10.3073   10.1012
    9.9400    9.8378    9.8029    9.7647    9.7626    9.8113
    9.9246   10.0597   10.0799    9.8647    9.6504    9.8647
   10.0799   10.0597    9.9246    9.8113    9.7626    9.7647
    9.7949    9.7245    9.6648    9.6895    9.7745    9.8647
    9.8626    9.7340    9.8626    9.8647    9.7745    9.6895
    9.6648    9.7245    9.7949    9.8135    9.7135    9.5978
    9.5514    9.5762    9.6504    9.7340    9.7723    9.7340
    9.6504    9.5762    9.5514    9.5978    9.7135    9.8135
    9.7949    9.7245    9.6648    9.6895    9.7745    9.8647
    9.8626    9.7340    9.8626    9.8647    9.7745    9.6895
    9.6648    9.7245    9.7949    9.7647    9.7626    9.8113
    9.9246   10.0597   10.0799    9.8647    9.6504    9.8647
   10.0799   10.0597    9.9246    9.8113    9.7626    9.7647
    9.8029    9.8378    9.9400   10.1012   10.3073   10.0597
    9.7745    9.5762    9.7745   10.0597   10.3073   10.1012
    9.9400    9.8378    9.8029    9.7890    9.8233    9.9218
   10.0647   10.1012    9.9246    9.6895    9.5514    9.6895
    9.9246   10.1012   10.0647    9.9218    9.8233    9.7890
    9.6544    9.6880    9.7843    9.9218    9.9400    9.8113
    9.6648    9.5978    9.6648    9.8113    9.9400    9.9218
    9.7843    9.6880    9.6544    9.5572    9.5911    9.6880
    9.8233    9.8378    9.7626    9.7245    9.7135    9.7245
    9.7626    9.8378    9.8233    9.6880    9.5911    9.5572
    9.5231    9.5572    9.6544    9.7890    9.8029    9.7647
    9.7949    9.8135    9.7949    9.7647    9.8029    9.7890
    9.6544    9.5572    9.5231    9.7769    9.8070    9.8876
    9.9620    9.7890    9.8369    9.9770   10.0393    9.9770
    9.8369    9.7890    9.9620    9.8876    9.8070    9.7769
    9.8070    9.8348    9.9061    9.9744    9.8233    9.8240
    9.8707    9.8863    9.8707    9.8240    9.8233    9.9744
    9.9061    9.8348    9.8070    9.8876    9.9061    9.9250
    9.9214    9.9218    9.8158    9.7351    9.7075    9.7351
    9.8158    9.9218    9.9214    9.9250    9.9061    9.8876
    9.9620    9.9744    9.9214    9.9627   10.0647    9.8585
    9.6726    9.5925    9.6726    9.8585   10.0647    9.9627
    9.9214    9.9744    9.9620    9.7890    9.8233    9.9218
   10.0647   10.1012    9.9246    9.6895    9.5514    9.6895
    9.9246   10.1012   10.0647    9.9218    9.8233    9.7890
    9.8369    9.8240    9.8158    9.8585    9.9246    9.9092
    9.7414    9.5743    9.7414    9.9092    9.9246    9.8585
    9.8158    9.8240    9.8369    9.9770    9.8707    9.7351
    9.6726    9.6895    9.7414    9.7340    9.6294    9.7340
    9.7414    9.6895    9.6726    9.7351    9.8707    9.9770
   10.0393    9.8863    9.7075    9.5925    9.5514    9.5743
    9.6294    9.6604    9.6294    9.5743    9.5514    9.5925
    9.7075    9.8863   10.0393    9.9770    9.8707    9.7351
    9.6726    9.6895    9.7414    9.7340    9.6294    9.7340
    9.7414    9.6895    9.6726    9.7351    9.8707    9.9770
    9.8369    9.8240    9.8158    9.8585    9.9246    9.9092
    9.7414    9.5743    9.7414    9.9092    9.9246    9.8585
    9.8158    9.8240    9.8369    9.7890    9.8233    9.9218
   10.0647   10.1012    9.9246    9.6895    9.5514    9.6895
    9.9246   10.1012   10.0647    9.9218    9.8233    9.7890
    9.9620    9.9744    9.9214    9.9627   10.0647    9.8585
    9.6726    9.5925    9.6726    9.8585   10.0647    9.9627
    9.9214    9.9744    9.9620    9.8876    9.9061    9.9250
    9.9214    9.9218    9.8158    9.7351    9.7075    9.7351
    9.8158    9.9218    9.9214    9.9250    9.9061    9.8876
    9.8070    9.8348    9.9061    9.9744    9.8233    9.8240
    9.8707    9.8863    9.8707    9.8240    9.8233    9.9744
    9.9061    9.8348    9.8070    9.7769    9.8070    9.8876
    9.9620    9.7890    9.8369    9.9770   10.0393    9.9770
    9.8369    9.7890    9.9620    9.8876    9.8070    9.7769
   10.0660   10.0938   10.1180    9.8876    9.6544    9.7318
    9.9374   10.0484    9.9374    9.7318    9.6544    9.8876
   10.1180   10.0938   10.0660   10.0938   10.1230   10.1594
    9.9061    9.6880    9.7553    9.9429   10.0805    9.9429
    9.7553    9.6880    9.9061   10.1594   10.1230   10.0938
   10.1180   10.1594   10.0842    9.9250    9.7843    9.8028
    9.8595    9.8758    9.8595    9.8028    9.7843    9.9250
   10.0842   10.1594   10.1180    9.8876    9.9061    9.9250
    9.9214    9.9218    9.8158    9.7351    9.7075    9.7351
    9.8158    9.9218    9.9214    9.9250    9.9061    9.8876
    9.6544    9.6880    9.7843    9.9218    9.9400    9.8113
    9.6648    9.5978    9.6648    9.8113    9.9400    9.9218
    9.7843    9.6880    9.6544    9.7318    9.7553    9.8028
    9.8158    9.8113    9.7676    9.6456    9.5492    9.6456
    9.7676    9.8113    9.8158    9.8028    9.7553    9.7318
    9.9374    9.9429    9.8595    9.7351    9.6648    9.6456
    9.6161    9.5459    9.6161    9.6456    9.6648    9.7351
    9.8595    9.9429    9.9374   10.0484   10.0805    9.8758
    9.7075    9.5978    9.5492    9.5459    9.5528    9.5459
    9.5492    9.5978    9.7075    9.8758   10.0805   10.0484
    9.9374    9.9429    9.8595    9.7351    9.6648    9.6456
    9.6161    9.5459    9.6161    9.6456    9.6648    9.7351
    9.8595    9.9429    9.9374    9.7318    9.7553    9.8028
    9.8158    9.8113    9.7676    9.6456    9.5492    9.6456
    9.7676    9.8113    9.8158    9.8028    9.7553    9.7318
    9.6544    9.6880    9.7843    9.9218    9.9400    9.8113
    9.6648    9.5978    9.6648    9.8113    9.9400    9.9218
    9.7843    9.6880    9.6544    9.8876    9.9061    9.9250
    9.9214    9.9218    9.8158    9.7351    9.7075    9.7351
    9.8158    9.9218    9.9214    9.9250    9.9061    9.8876
   10.1180   10.1594   10.0842    9.9250    9.7843    9.8028
    9.8595    9.8758    9.8595    9.8028    9.7843    9.9250
   10.0842   10.1594   10.1180   10.0938   10.1230   10.1594
    9.9061    9.6880    9.7553    9.9429   10.0805    9.9429
    9.7553    9.6880    9.9061   10.1594   10.1230   10.0938